<?xml version="1.0"?>
<VTKFile type="UnstructuredGrid"  version="0.1"  >
<UnstructuredGrid>
<Piece  NumberOfPoints="1089" NumberOfCells="2048">
<Points>
<DataArray  type="Float64"  NumberOfComponents="3"  format="ascii">0 0 0  0.03125 0 0  0.0625 0 0  0.09375 0 0  0.125 0 0  0.15625 0 0  0.1875 0 0  0.21875 0 0  0.25 0 0  0.28125 0 0  0.3125 0 0  0.34375 0 0  0.375 0 0  0.40625 0 0  0.4375 0 0  0.46875 0 0  0.5 0 0  0.53125 0 0  0.5625 0 0  0.59375 0 0  0.625 0 0  0.65625 0 0  0.6875 0 0  0.71875 0 0  0.75 0 0  0.78125 0 0  0.8125 0 0  0.84375 0 0  0.875 0 0  0.90625 0 0  0.9375 0 0  0.96875 0 0  1 0 0  0 0.03125 0  0.03125 0.03125 0  0.0625 0.03125 0  0.09375 0.03125 0  0.125 0.03125 0  0.15625 0.03125 0  0.1875 0.03125 0  0.21875 0.03125 0  0.25 0.03125 0  0.28125 0.03125 0  0.3125 0.03125 0  0.34375 0.03125 0  0.375 0.03125 0  0.40625 0.03125 0  0.4375 0.03125 0  0.46875 0.03125 0  0.5 0.03125 0  0.53125 0.03125 0  0.5625 0.03125 0  0.59375 0.03125 0  0.625 0.03125 0  0.65625 0.03125 0  0.6875 0.03125 0  0.71875 0.03125 0  0.75 0.03125 0  0.78125 0.03125 0  0.8125 0.03125 0  0.84375 0.03125 0  0.875 0.03125 0  0.90625 0.03125 0  0.9375 0.03125 0  0.96875 0.03125 0  1 0.03125 0  0 0.0625 0  0.03125 0.0625 0  0.0625 0.0625 0  0.09375 0.0625 0  0.125 0.0625 0  0.15625 0.0625 0  0.1875 0.0625 0  0.21875 0.0625 0  0.25 0.0625 0  0.28125 0.0625 0  0.3125 0.0625 0  0.34375 0.0625 0  0.375 0.0625 0  0.40625 0.0625 0  0.4375 0.0625 0  0.46875 0.0625 0  0.5 0.0625 0  0.53125 0.0625 0  0.5625 0.0625 0  0.59375 0.0625 0  0.625 0.0625 0  0.65625 0.0625 0  0.6875 0.0625 0  0.71875 0.0625 0  0.75 0.0625 0  0.78125 0.0625 0  0.8125 0.0625 0  0.84375 0.0625 0  0.875 0.0625 0  0.90625 0.0625 0  0.9375 0.0625 0  0.96875 0.0625 0  1 0.0625 0  0 0.09375 0  0.03125 0.09375 0  0.0625 0.09375 0  0.09375 0.09375 0  0.125 0.09375 0  0.15625 0.09375 0  0.1875 0.09375 0  0.21875 0.09375 0  0.25 0.09375 0  0.28125 0.09375 0  0.3125 0.09375 0  0.34375 0.09375 0  0.375 0.09375 0  0.40625 0.09375 0  0.4375 0.09375 0  0.46875 0.09375 0  0.5 0.09375 0  0.53125 0.09375 0  0.5625 0.09375 0  0.59375 0.09375 0  0.625 0.09375 0  0.65625 0.09375 0  0.6875 0.09375 0  0.71875 0.09375 0  0.75 0.09375 0  0.78125 0.09375 0  0.8125 0.09375 0  0.84375 0.09375 0  0.875 0.09375 0  0.90625 0.09375 0  0.9375 0.09375 0  0.96875 0.09375 0  1 0.09375 0  0 0.125 0  0.03125 0.125 0  0.0625 0.125 0  0.09375 0.125 0  0.125 0.125 0  0.15625 0.125 0  0.1875 0.125 0  0.21875 0.125 0  0.25 0.125 0  0.28125 0.125 0  0.3125 0.125 0  0.34375 0.125 0  0.375 0.125 0  0.40625 0.125 0  0.4375 0.125 0  0.46875 0.125 0  0.5 0.125 0  0.53125 0.125 0  0.5625 0.125 0  0.59375 0.125 0  0.625 0.125 0  0.65625 0.125 0  0.6875 0.125 0  0.71875 0.125 0  0.75 0.125 0  0.78125 0.125 0  0.8125 0.125 0  0.84375 0.125 0  0.875 0.125 0  0.90625 0.125 0  0.9375 0.125 0  0.96875 0.125 0  1 0.125 0  0 0.15625 0  0.03125 0.15625 0  0.0625 0.15625 0  0.09375 0.15625 0  0.125 0.15625 0  0.15625 0.15625 0  0.1875 0.15625 0  0.21875 0.15625 0  0.25 0.15625 0  0.28125 0.15625 0  0.3125 0.15625 0  0.34375 0.15625 0  0.375 0.15625 0  0.40625 0.15625 0  0.4375 0.15625 0  0.46875 0.15625 0  0.5 0.15625 0  0.53125 0.15625 0  0.5625 0.15625 0  0.59375 0.15625 0  0.625 0.15625 0  0.65625 0.15625 0  0.6875 0.15625 0  0.71875 0.15625 0  0.75 0.15625 0  0.78125 0.15625 0  0.8125 0.15625 0  0.84375 0.15625 0  0.875 0.15625 0  0.90625 0.15625 0  0.9375 0.15625 0  0.96875 0.15625 0  1 0.15625 0  0 0.1875 0  0.03125 0.1875 0  0.0625 0.1875 0  0.09375 0.1875 0  0.125 0.1875 0  0.15625 0.1875 0  0.1875 0.1875 0  0.21875 0.1875 0  0.25 0.1875 0  0.28125 0.1875 0  0.3125 0.1875 0  0.34375 0.1875 0  0.375 0.1875 0  0.40625 0.1875 0  0.4375 0.1875 0  0.46875 0.1875 0  0.5 0.1875 0  0.53125 0.1875 0  0.5625 0.1875 0  0.59375 0.1875 0  0.625 0.1875 0  0.65625 0.1875 0  0.6875 0.1875 0  0.71875 0.1875 0  0.75 0.1875 0  0.78125 0.1875 0  0.8125 0.1875 0  0.84375 0.1875 0  0.875 0.1875 0  0.90625 0.1875 0  0.9375 0.1875 0  0.96875 0.1875 0  1 0.1875 0  0 0.21875 0  0.03125 0.21875 0  0.0625 0.21875 0  0.09375 0.21875 0  0.125 0.21875 0  0.15625 0.21875 0  0.1875 0.21875 0  0.21875 0.21875 0  0.25 0.21875 0  0.28125 0.21875 0  0.3125 0.21875 0  0.34375 0.21875 0  0.375 0.21875 0  0.40625 0.21875 0  0.4375 0.21875 0  0.46875 0.21875 0  0.5 0.21875 0  0.53125 0.21875 0  0.5625 0.21875 0  0.59375 0.21875 0  0.625 0.21875 0  0.65625 0.21875 0  0.6875 0.21875 0  0.71875 0.21875 0  0.75 0.21875 0  0.78125 0.21875 0  0.8125 0.21875 0  0.84375 0.21875 0  0.875 0.21875 0  0.90625 0.21875 0  0.9375 0.21875 0  0.96875 0.21875 0  1 0.21875 0  0 0.25 0  0.03125 0.25 0  0.0625 0.25 0  0.09375 0.25 0  0.125 0.25 0  0.15625 0.25 0  0.1875 0.25 0  0.21875 0.25 0  0.25 0.25 0  0.28125 0.25 0  0.3125 0.25 0  0.34375 0.25 0  0.375 0.25 0  0.40625 0.25 0  0.4375 0.25 0  0.46875 0.25 0  0.5 0.25 0  0.53125 0.25 0  0.5625 0.25 0  0.59375 0.25 0  0.625 0.25 0  0.65625 0.25 0  0.6875 0.25 0  0.71875 0.25 0  0.75 0.25 0  0.78125 0.25 0  0.8125 0.25 0  0.84375 0.25 0  0.875 0.25 0  0.90625 0.25 0  0.9375 0.25 0  0.96875 0.25 0  1 0.25 0  0 0.28125 0  0.03125 0.28125 0  0.0625 0.28125 0  0.09375 0.28125 0  0.125 0.28125 0  0.15625 0.28125 0  0.1875 0.28125 0  0.21875 0.28125 0  0.25 0.28125 0  0.28125 0.28125 0  0.3125 0.28125 0  0.34375 0.28125 0  0.375 0.28125 0  0.40625 0.28125 0  0.4375 0.28125 0  0.46875 0.28125 0  0.5 0.28125 0  0.53125 0.28125 0  0.5625 0.28125 0  0.59375 0.28125 0  0.625 0.28125 0  0.65625 0.28125 0  0.6875 0.28125 0  0.71875 0.28125 0  0.75 0.28125 0  0.78125 0.28125 0  0.8125 0.28125 0  0.84375 0.28125 0  0.875 0.28125 0  0.90625 0.28125 0  0.9375 0.28125 0  0.96875 0.28125 0  1 0.28125 0  0 0.3125 0  0.03125 0.3125 0  0.0625 0.3125 0  0.09375 0.3125 0  0.125 0.3125 0  0.15625 0.3125 0  0.1875 0.3125 0  0.21875 0.3125 0  0.25 0.3125 0  0.28125 0.3125 0  0.3125 0.3125 0  0.34375 0.3125 0  0.375 0.3125 0  0.40625 0.3125 0  0.4375 0.3125 0  0.46875 0.3125 0  0.5 0.3125 0  0.53125 0.3125 0  0.5625 0.3125 0  0.59375 0.3125 0  0.625 0.3125 0  0.65625 0.3125 0  0.6875 0.3125 0  0.71875 0.3125 0  0.75 0.3125 0  0.78125 0.3125 0  0.8125 0.3125 0  0.84375 0.3125 0  0.875 0.3125 0  0.90625 0.3125 0  0.9375 0.3125 0  0.96875 0.3125 0  1 0.3125 0  0 0.34375 0  0.03125 0.34375 0  0.0625 0.34375 0  0.09375 0.34375 0  0.125 0.34375 0  0.15625 0.34375 0  0.1875 0.34375 0  0.21875 0.34375 0  0.25 0.34375 0  0.28125 0.34375 0  0.3125 0.34375 0  0.34375 0.34375 0  0.375 0.34375 0  0.40625 0.34375 0  0.4375 0.34375 0  0.46875 0.34375 0  0.5 0.34375 0  0.53125 0.34375 0  0.5625 0.34375 0  0.59375 0.34375 0  0.625 0.34375 0  0.65625 0.34375 0  0.6875 0.34375 0  0.71875 0.34375 0  0.75 0.34375 0  0.78125 0.34375 0  0.8125 0.34375 0  0.84375 0.34375 0  0.875 0.34375 0  0.90625 0.34375 0  0.9375 0.34375 0  0.96875 0.34375 0  1 0.34375 0  0 0.375 0  0.03125 0.375 0  0.0625 0.375 0  0.09375 0.375 0  0.125 0.375 0  0.15625 0.375 0  0.1875 0.375 0  0.21875 0.375 0  0.25 0.375 0  0.28125 0.375 0  0.3125 0.375 0  0.34375 0.375 0  0.375 0.375 0  0.40625 0.375 0  0.4375 0.375 0  0.46875 0.375 0  0.5 0.375 0  0.53125 0.375 0  0.5625 0.375 0  0.59375 0.375 0  0.625 0.375 0  0.65625 0.375 0  0.6875 0.375 0  0.71875 0.375 0  0.75 0.375 0  0.78125 0.375 0  0.8125 0.375 0  0.84375 0.375 0  0.875 0.375 0  0.90625 0.375 0  0.9375 0.375 0  0.96875 0.375 0  1 0.375 0  0 0.40625 0  0.03125 0.40625 0  0.0625 0.40625 0  0.09375 0.40625 0  0.125 0.40625 0  0.15625 0.40625 0  0.1875 0.40625 0  0.21875 0.40625 0  0.25 0.40625 0  0.28125 0.40625 0  0.3125 0.40625 0  0.34375 0.40625 0  0.375 0.40625 0  0.40625 0.40625 0  0.4375 0.40625 0  0.46875 0.40625 0  0.5 0.40625 0  0.53125 0.40625 0  0.5625 0.40625 0  0.59375 0.40625 0  0.625 0.40625 0  0.65625 0.40625 0  0.6875 0.40625 0  0.71875 0.40625 0  0.75 0.40625 0  0.78125 0.40625 0  0.8125 0.40625 0  0.84375 0.40625 0  0.875 0.40625 0  0.90625 0.40625 0  0.9375 0.40625 0  0.96875 0.40625 0  1 0.40625 0  0 0.4375 0  0.03125 0.4375 0  0.0625 0.4375 0  0.09375 0.4375 0  0.125 0.4375 0  0.15625 0.4375 0  0.1875 0.4375 0  0.21875 0.4375 0  0.25 0.4375 0  0.28125 0.4375 0  0.3125 0.4375 0  0.34375 0.4375 0  0.375 0.4375 0  0.40625 0.4375 0  0.4375 0.4375 0  0.46875 0.4375 0  0.5 0.4375 0  0.53125 0.4375 0  0.5625 0.4375 0  0.59375 0.4375 0  0.625 0.4375 0  0.65625 0.4375 0  0.6875 0.4375 0  0.71875 0.4375 0  0.75 0.4375 0  0.78125 0.4375 0  0.8125 0.4375 0  0.84375 0.4375 0  0.875 0.4375 0  0.90625 0.4375 0  0.9375 0.4375 0  0.96875 0.4375 0  1 0.4375 0  0 0.46875 0  0.03125 0.46875 0  0.0625 0.46875 0  0.09375 0.46875 0  0.125 0.46875 0  0.15625 0.46875 0  0.1875 0.46875 0  0.21875 0.46875 0  0.25 0.46875 0  0.28125 0.46875 0  0.3125 0.46875 0  0.34375 0.46875 0  0.375 0.46875 0  0.40625 0.46875 0  0.4375 0.46875 0  0.46875 0.46875 0  0.5 0.46875 0  0.53125 0.46875 0  0.5625 0.46875 0  0.59375 0.46875 0  0.625 0.46875 0  0.65625 0.46875 0  0.6875 0.46875 0  0.71875 0.46875 0  0.75 0.46875 0  0.78125 0.46875 0  0.8125 0.46875 0  0.84375 0.46875 0  0.875 0.46875 0  0.90625 0.46875 0  0.9375 0.46875 0  0.96875 0.46875 0  1 0.46875 0  0 0.5 0  0.03125 0.5 0  0.0625 0.5 0  0.09375 0.5 0  0.125 0.5 0  0.15625 0.5 0  0.1875 0.5 0  0.21875 0.5 0  0.25 0.5 0  0.28125 0.5 0  0.3125 0.5 0  0.34375 0.5 0  0.375 0.5 0  0.40625 0.5 0  0.4375 0.5 0  0.46875 0.5 0  0.5 0.5 0  0.53125 0.5 0  0.5625 0.5 0  0.59375 0.5 0  0.625 0.5 0  0.65625 0.5 0  0.6875 0.5 0  0.71875 0.5 0  0.75 0.5 0  0.78125 0.5 0  0.8125 0.5 0  0.84375 0.5 0  0.875 0.5 0  0.90625 0.5 0  0.9375 0.5 0  0.96875 0.5 0  1 0.5 0  0 0.53125 0  0.03125 0.53125 0  0.0625 0.53125 0  0.09375 0.53125 0  0.125 0.53125 0  0.15625 0.53125 0  0.1875 0.53125 0  0.21875 0.53125 0  0.25 0.53125 0  0.28125 0.53125 0  0.3125 0.53125 0  0.34375 0.53125 0  0.375 0.53125 0  0.40625 0.53125 0  0.4375 0.53125 0  0.46875 0.53125 0  0.5 0.53125 0  0.53125 0.53125 0  0.5625 0.53125 0  0.59375 0.53125 0  0.625 0.53125 0  0.65625 0.53125 0  0.6875 0.53125 0  0.71875 0.53125 0  0.75 0.53125 0  0.78125 0.531
[...]
<PointData  Scalars="f_80"> 
<DataArray  type="Float64"  Name="f_80"  format="ascii">1.9152998804723414e-14  -3.8305997571486683e-14  1.3407099148122339e-13  -4.9797796835340699e-13  1.8578408819324058e-12  -6.9333855593762175e-12  2.5875701355572474e-11  -9.6569419862913732e-11  3.6040197809608246e-10  -1.3450384925214171e-09  5.0197519945744694e-09  -1.8733969535870303e-08  6.9916126070310811e-08  -2.6093053474537308e-07  9.7380601296489726e-07  -3.6342935171217802e-06  1.3563368054866526e-05  -3.6342935169475718e-06  9.7380601292376894e-07  -2.6093053474750454e-07  6.9916126066249632e-08  -1.8733969517494072e-08  5.0197520037266695e-09  -1.3450384974126124e-09  3.6040198592378282e-10  -9.6569469289836157e-11  2.5875726050758481e-11  -6.9333913501439595e-12  1.8578393498173665e-12  -4.9797831892166068e-13  1.3407154561379664e-13  -3.8307863533526253e-14  1.9162943624265608e-14  -3.8305997647406991e-14  6.8819885296534831e-04  1.3462648097747271e-03  1.9744895187520433e-03  2.5731639798182411e-03  3.1425796867041687e-03  3.6830346538998288e-03  4.1948414094814578e-03  4.6783367777081530e-03  5.1338933782233264e-03  5.5619387302406889e-03  5.9629760634985120e-03  6.3376721883829021e-03  6.6868948686439550e-03  7.0125443496768230e-03  7.3174600873831307e-03  7.6163180662011179e-03  7.6624867571320069e-03  7.6985011590608851e-03  7.7054370672241159e-03  7.6758557284330479e-03  7.6027071657473241e-03  7.4791893955208034e-03  7.2976252201214292e-03  7.0490425928776230e-03  6.7225554056223108e-03  6.3045544407068837e-03  5.7774289615604574e-03  5.1173646839514928e-03  4.2901302865535045e-03  3.2420383880549012e-03  1.8779338516501491e-03  -3.8308662432321257e-14  1.3407099178490457e-13  1.3462648097747269e-03  2.6322203922028217e-03  3.8584650289786491e-03  5.0255798577175138e-03  6.1341421381825049e-03  7.1847401464388725e-03  8.1779896611155617e-03  9.1145524303242811e-03  9.9951577014143495e-03  1.0820629894847472e-02  1.1591926293066938e-02  1.2310201278321884e-02  1.2976891623728292e-02  1.3593907692960485e-02  1.4163442108727449e-02  1.4687179992140666e-02  1.4796847156619022e-02  1.4852699266074066e-02  1.4844723774998401e-02  1.4761722153620637e-02  1.4591714116553007e-02  1.4321680101218072e-02  1.3936820250936907e-02  1.3419762476229570e-02  1.2749542872120394e-02  1.1900204905238123e-02  1.0838711997849856e-02  9.5216246531919565e-03  7.8894844926344545e-03  5.8568742244385838e-03  3.2945834301561904e-03  1.3407160185874940e-13  -4.9797796949221154e-13  1.9744895187520438e-03  3.8584650289786495e-03  5.6528187662546001e-03  7.3584093055752264e-03  8.9760853422849677e-03  1.0506709503608873e-02  1.1951182955829455e-02  1.3310471491349722e-02  1.4585634028672648e-02  1.5777855011647249e-02  1.6888482478277567e-02  1.7919074219882966e-02  1.8871446214889034e-02  1.9747712092439428e-02  2.0550209545942787e-02  2.1281446340236203e-02  2.1419551753268477e-02  2.1474779831162302e-02  2.1432555229686855e-02  2.1277503403224450e-02  2.0992959417331911e-02  2.0560414256487355e-02  1.9958722729008612e-02  1.9163115107819911e-02  1.8143929762341016e-02  1.6864924571834410e-02  1.5280927317978277e-02  1.3334446378954192e-02  1.0950677931071254e-02  8.0302257933343030e-03  4.4393088195211232e-03  -4.9797834487387574e-13  1.8578408861839425e-12  2.5731639798182433e-03  5.0255798577175130e-03  7.3584093055752272e-03  9.5727653910928252e-03  1.1669745262288820e-02  1.3650462133936045e-02  1.5516077355321680e-02  1.7267833209765202e-02  1.8907086926050483e-02  2.0435346063802897e-02  2.1854304577447158e-02  2.3165876754920160e-02  2.4372220082984081e-02  2.5475727086497531e-02  2.6478936779946394e-02  2.7384300271914516e-02  2.7535604671296985e-02  2.7574310413229487e-02  2.7482641741691061e-02  2.7241524261067941e-02  2.6830145715465454e-02  2.6225281533940985e-02  2.5400408763185271e-02  2.4324603055937678e-02  2.2961164489733038e-02  2.1265879369529502e-02  1.9184784844624197e-02  1.6651273736784065e-02  1.3582404078745272e-02  9.8744971975789145e-03  5.3988336372862945e-03  1.8578406954148657e-12  -6.9333855752435611e-12  3.1425796867041696e-03  6.1341421381825075e-03  8.9760853422849694e-03  1.1669745262288820e-02  1.4216436583734332e-02  1.6617492129381961e-02  1.8874301768336675e-02  2.0988351479767766e-02  2.2961262746749134e-02  2.4794831657253002e-02  2.6491065801569416e-02  2.8052214970851416e-02  2.9480788428435836e-02  3.0779548480669348e-02  3.1951472353612467e-02  3.2999711947105714e-02  3.3150176092023510e-02  3.3159645509315938e-02  3.3006989551732042e-02  3.2669854505913781e-02  3.2123934855863769e-02  3.1342153775845073e-02  3.0293687561558296e-02  2.8942801116350031e-02  2.7247458469623686e-02  2.5157666460955484e-02  2.2613514043080513e-02  1.9542903995930345e-02  1.5859077497908505e-02  1.1458277053047658e-02  6.2183738595727655e-03  -6.9333859050917509e-12  2.5875701414790315e-11  3.6830346538998288e-03  7.1847401464388743e-03  1.0506709503608869e-02  1.3650462133936034e-02  1.6617492129381954e-02  1.9409314314252885e-02  2.2027509373208284e-02  2.4473769041757871e-02  2.6749941543851592e-02  2.8858076357207486e-02  3.0800465975227821e-02  3.2579680623434533e-02  3.4198590227154359e-02  3.5660367702747463e-02  3.6968471653964295e-02  3.8126617564662658e-02  3.8266621505316498e-02  3.8237467139262502e-02  3.8015500669254895e-02  3.7575795963339993e-02  3.6891349978646015e-02  3.5932182706303314e-02  3.4664304038545042e-02  3.3048522644629971e-02  3.1039081709576297e-02  2.8582120449626752e-02  2.5613989429968839e-02  2.2059506559587182e-02  1.7830348856801577e-02  1.2823951933660840e-02  6.9235271196515600e-03  2.5875701134550034e-11  -9.6569420083917742e-11  4.1948414094814578e-03  8.1779896611155600e-03  1.1951182955829451e-02  1.5516077355321671e-02  1.8874301768336675e-02  2.2027509373208277e-02  2.4977428025464331e-02  2.7725911434710693e-02  3.0274991609783159e-02  3.2626931663325226e-02  3.4784276521060316e-02  3.6749897393298925e-02  3.8527024388286903e-02  4.0119261445881474e-02  4.1530580746050517e-02  4.2765302169243673e-02  4.2887577941591939e-02  4.2812897865927506e-02  4.2515802616977391e-02  4.1969573867926387e-02  4.1145384713328570e-02  4.0011355786339103e-02  3.8531488469596989e-02  3.6664461149056561e-02  3.4362289935995022e-02  3.1568878501243743e-02  2.8218520911570726e-02  2.4234485142121068e-02  1.9527898555895203e-02  1.3997272976860466e-02  7.5291077631148111e-03  -9.6569420697893210e-11  3.6040197892088069e-10  4.6783367777081513e-03  9.1145524303242777e-03  1.3310471491349712e-02  1.7267833209765188e-02  2.0988351479767752e-02  2.4473769041757840e-02  2.7725911434710666e-02  3.0746743710699458e-02  3.3538430847968745e-02  3.6103401101363612e-02  3.8444409851206056e-02  4.0564599493857600e-02  4.2467548554008000e-02  4.4157301120288782e-02  4.5638367381796732e-02  4.6915689383362706e-02  4.7014832773549911e-02  4.6889486238667635e-02  4.6513162999229786e-02  4.5858176020300220e-02  4.4894790261807753e-02  4.3590262646578198e-02  4.1907754625014650e-02  3.9805113208758215e-02  3.7233530728833307e-02  3.4136117690343346e-02  3.0446464003153408e-02  2.6087327352902388e-02  2.0969673695358106e-02  1.4992389056311709e-02  8.0430401051678375e-03  3.6040197935655259e-10  -1.3450384955996056e-09  5.1338933782233247e-03  9.9951577014143460e-03  1.4585634028672630e-02  1.8907086926050455e-02  2.2961262746749096e-02  2.6749941543851543e-02  3.0274991609783114e-02  3.3538430847968724e-02  3.6542495974572597e-02  3.9289718916149005e-02  4.1783008317834436e-02  4.4025731731864567e-02  4.6021790175123083e-02  4.7775671316740313e-02  4.9292462022494793e-02  5.0577799672305516e-02  5.0649427931990218e-02  5.0469252254654290e-02  5.0010493366933820e-02  4.9245316251623476e-02  4.8144008741819108e-02  4.6674019520401372e-02  4.4798853102954742e-02  4.2476824204791395e-02  3.9659680853902285e-02  3.6291123592419934e-02  3.2305284931635481e-02  2.7625296317698226e-02  2.2162163523454757e-02  1.5814287430697301e-02  8.4680659976332402e-03  -1.3450384992309264e-09  5.0197520034775434e-09  5.5619387302406863e-03  1.0820629894847458e-02  1.5777855011647222e-02  2.0435346063802848e-02  2.4794831657252946e-02  2.8858076357207416e-02  3.2626931663325170e-02  3.6103401101363571e-02  3.9289718916148984e-02  4.2188441677349982e-02  4.4802551957882998e-02  4.7135571213025834e-02  4.9191673595597722e-02  5.0975782219749383e-02  5.2493614305194856e-02  5.3751627552415276e-02  5.3791704193921243e-02  5.3552775713670744e-02  5.3008441191640339e-02  5.2131511884117035e-02  5.0893231516436523e-02  4.9262313792237541e-02  4.7203816312068846e-02  4.4677857692291593e-02  4.1638175340214002e-02  3.8030525382139302e-02  3.3790951587307903e-02  2.8844008596951690e-02  2.3101134137255976e-02  1.6459542522894353e-02  8.8022473996129270e-03  5.0197519855205458e-09  -1.8733969518310572e-08  5.9629760634985051e-03  1.1591926293066919e-02  1.6888482478277535e-02  2.1854304577447106e-02  2.6491065801569340e-02  3.0800465975227731e-02  3.4784276521060219e-02  3.8444409851205986e-02  4.1783008317834387e-02  4.4802551957882970e-02  4.7505987316565773e-02  4.9896879394199081e-02  5.1979583319869224e-02  5.3759417354204551e-02  5.5242788322584668e-02  5.6437174493033440e-02  5.6441408643419851e-02  5.6139368010368874e-02  5.5505588175898020e-02  5.4514279882979626e-02  5.3138577216539716e-02  5.1349554485449866e-02  4.9115071183766179e-02  4.6398453148611130e-02  4.3156982083405661e-02  3.9340147790108859e-02  3.4887619534912359e-02  2.9726929088176816e-02  2.3770965819743098e-02  1.6915633873520304e-02  9.0385044656509754e-03  -1.8733969512479309e-08  6.9916126069764779e-08  6.3376721883828951e-03  1.2310201278321869e-02  1.7919074219882924e-02  2.3165876754920090e-02  2.8052214970851329e-02  3.2579680623434415e-02  3.6749897393298779e-02  4.0564599493857469e-02  4.4025731731864449e-02  4.7135571213025765e-02  4.9896879394199067e-02  5.2313096646702306e-02  5.4388590359433032e-02  5.6128953753837828e-02  5.7541306713517933e-02  5.8634440100451005e-02  5.8597875634094500e-02  5.8227365347834993e-02  5.7498783772044759e-02  5.6388467862839603e-02  5.4872399034285778e-02  5.2925139074174704e-02  5.0518636904011503e-02  4.7620900317264916e-02  4.4194461422439324e-02  4.0194523026350702e-02  3.5566637878625136e-02  3.0243748810851647e-02  2.4142454147783522e-02  1.7158593124577369e-02  9.1630084736880509e-03  6.9916126067746512e-08  -2.6093053476074859e-07  6.6868948686439498e-03  1.2976891623728275e-02  1.8871446214888992e-02  2.4372220082984005e-02  2.9480788428435732e-02  3.4198590227154206e-02  3.8527024388286688e-02  4.2467548554007667e-02  4.6021790175122868e-02  4.9191673595597618e-02  5.1979583319869190e-02  5.4388590359433026e-02  5.6422779846211392e-02  5.8087724665788515e-02  5.9391120522316689e-02  6.0343424480162604e-02  6.0260358970141398e-02  5.9814615607384436e-02  5.8983657052074631e-02  5.7746741471835832e-02  5.6083738355828250e-02  5.3973865476607499e-02  5.1394462160488000e-02  4.8319721586767957e-02  4.4719243411423519e-02  4.0556220550023503e-02  3.5784995954143216e-02  3.0347592486250130e-02  2.4168650086735063e-02  1.7148077682732025e-02  9.1513378995624287e-03  -2.6093053476151107e-07  9.7380601297322995e-07  7.0125443496768265e-03  1.3593907692960467e-02  1.9747712092439390e-02  2.5475727086497459e-02  3.0779548480669248e-02  3.5660367702747310e-02  4.0119261445881210e-02  4.4157301120288164e-02  4.7775671316740036e-02  5.0975782219749272e-02  5.3759417354204517e-02  5.6128953753837821e-02  5.8087724665788543e-02  5.9640653087767392e-02  6.0795379716131318e-02  6.1564127603898518e-02  6.1428690771672213e-02  6.0899289034469742e-02  5.9955356908084297e-02  5.8580237892221936e-02  5.6758933065566675e-02  5.4476522742093463e-02  5.1716982359394349e-02  4.8462112818749757e-02  4.4690365045687880e-02  4.0375329560938755e-02  3.5483565266283205e-02  2.9971181384186196e-02  2.3778133738895924e-02  1.6818017381034184e-02  8.9604881975394856e-03  9.7380601297292332e-07  -3.6342935171321725e-06  7.3174600873831550e-03  1.4163442108727449e-02  2.0550209545942787e-02  2.6478936779946352e-02  3.1951472353612412e-02  3.6968471653964205e-02  4.1530580746050393e-02  4.5638367381796496e-02  4.9292462022494613e-02  5.2493614305194766e-02  5.5242788322584627e-02  5.7541306713517933e-02  5.9391120522316751e-02  6.0795379716131477e-02  6.1759812984741952e-02  6.2296549479243249e-02  6.2104775348937893e-02  6.1481235813773530e-02  6.0409537503109040e-02  5.8879344587429272e-02  5.6882353541432146e-02  5.4410676872865903e-02  5.1455980289482707e-02  4.8008830285840104e-02  4.4058018719103732e-02  3.9589679509408587e-02  3.4585973391927143e-02  2.9022757416551970e-02  2.2865452585606787e-02  1.6058834195097623e-02  8.5069089094867312e-03  -3.6342935171330513e-06  1.3563368055555463e-05  7.6163180662009358e-03  1.4687179992140705e-02  2.1281446340236227e-02  2.7384300271914512e-02  3.2999711947105707e-02  3.8126617564662652e-02  4.2765302169243659e-02  4.6915689383362685e-02  5.0577799672305510e-02  5.3751627552415276e-02  5.6437174493033440e-02  5.8634440100450901e-02  6.0343424480162645e-02  6.1564127603898497e-02  6.2296549479243249e-02  6.2540690104128480e-02  6.2296549479243263e-02  6.1564127603898532e-02  6.0343424480162638e-02  5.8634440100450970e-02  5.6437174493033433e-02  5.3751627552415276e-02  5.0577799672305523e-02  4.6915689383362658e-02  4.2765302169243680e-02  3.8126617564662638e-02  3.2999711947105714e-02  2.7384300271914516e-02  2.1281446340236179e-02  1.4687179992140720e-02  7.6163180662009288e-03  1.3563368055556315e-05  -3.6342935171331525e-06  7.6624867571318993e-03  1.4796847156618984e-02  2.1419551753268463e-02  2.7535604671296968e-02  3.3150176092023469e-02  3.8266621505316435e-02  4.2887577941591898e-02  4.7014832773549897e-02  5.0649427931990225e-02  5.3791704193921215e-02  5.6441408643419837e-02  5.8597875634094458e-02  6.0260358970141405e-02  6.1428690771672241e-02  6.2104775348937859e-02  6.2296549479243249e-02  6.2449603931380646e-02  6.2114304603594885e-02  6.1278445020960935e-02  5.9935510753722429e-02  5.8080514896801952e-02  5.5708267230794639e-02  5.2812422695669450e-02  4.9384766374363363e-02  4.5414500917407459e-02  4.0887350729382682e-02  3.5784258407864533e-02  3.0079090264310913e-02  2.3734564418033236e-02  1.6692125390588494e-02  8.8519225316048521e-03  -3.6342935171329509e-06  9.7380601297714917e-07  7.6985011590608617e-03  1.4852699266074038e-02  2.1474779831162281e-02  2.7574310413229459e-02  3.3159645509315876e-02  3.8237467139262370e-02  4.2812897865927464e-02  4.6889486238667621e-02  5.0469252254654311e-02  5.3552775713670731e-02  5.6139368010368874e-02  5.8227365347834965e-02  5.9814615607384422e-02  6.0899289034469728e-02  6.1481235813773530e-02  6.1564127603898559e-02  6.2114304603594822e-02  6.2157482749733109e-02  6.1681639496168651e-02  6.0677904538310755e-02  5.9138030050252581e-02  5.7052582025652943e-02  5.4409578523354714e-02  5.1193295382160178e-02  4.7383017228162287e-02  4.2951502355756857e-02  3.7862834648396786e-02  3.2069077082418428e-02  2.5504689551699926e-02  1.8076494018146736e-02  9.6463177157404493e-03  9.7380601297283417e-07  -2.6093053476661810e-07  7.7054370672241072e-03  1.4844723774998394e-02  2.1432555229686845e-02  2.7482641741691047e-02  3.3006989551731994e-02  3.8015500669254861e-02  4.2515802616977384e-02  4.6513162999229793e-02  5.0010493366933834e-02  5.3008441191640339e-02  5.5505588175898020e-02  5.7498783772044745e-02  5.8983657052074617e-02  5.9955356908084255e-02  6.0409537503109012e-02  6.0343424480162618e-02  6.1278445020960727e-02  6.1681639496168575e-02  6.1543692274310759e-02  6.0855897935996085e-02  5.9608548147643131e-02  5.7789317448734071e-02  5.5381769337554253e-02  5.2363903717743597e-02  4.8706601682007182e-02  4.4371776418163901e-02  3.9309963973394965e-02  3.3456958776319462e-02  2.6728932880881847e-02  1.9015351684388483e-02  1.0169606806669644e-02  -2.6093053476131075e-07  6.9916126071122997e-08  7.6758557284330488e-03  1.4761722153620635e-02  2.1277503403224450e-02  2.7241524261067941e-02  3.2669854505913774e-02  3.7575795963339979e-02  4.1969573867926394e-02  4.5858176020300234e-02  4.9245316251623476e-02  5.2131511884117056e-02  5.4514279882979640e-02  5.6388467862839589e-02  5.7746741471835818e-02  5.8580237892221929e-02  5.8879344587429258e-02  5.8634440100450928e-02  5.9935510753722269e-02  6.0677904538310658e-02  6.0855897935996023e-02  6.0462554696905028e-02  5.9488310451425198e-02  5.7919429913188977e-02  5.5736458251925892e-02  5.2912652866367080e-02  4.9412311641696002e-02  4.5188874352834349e-02  4.0182645056930831e-02  3.4317967472051708e-02  2.7499728312800516e-02  1.9609296363016698e-02  1.0500763579417033e-02  6.9916126069211482e-08  -1.8733969517873993e-08  7.6027071657473293e-03  1.4591714116553021e-02  2.0992959417331924e-02  2.6830145715465475e-02  3.2123934855863789e-02  3.6891349978646036e-02  4.1145384713328598e-02  4.4894790261807802e-02  4.8144008741819164e-02  5.0893231516436571e-02  5.3138577216539758e-02  5.4872399034285778e-02  5.6083738355828243e-02  5.6758933065566675e-02  5.6882353541432132e-02  5.6437174493033433e-02  5.8080514896801876e-02  5.9138030050252484e-02  5.9608548147642985e-02  5.9488310451424720e-02  5.8769429752637076e-02  5.7438295894417735e-02  5.5473984679664669e-02  5.2846656352275166e-02  4.9515889041918129e-02  4.5428880988255073e-02  4.0518470384512957e-02  3.4700972966138860e-02  2.7873958383097135e-02  1.9914342571189972e-02  1.0677651913775194e-02  -1.8733969518911783e-08  5.0197520021771046e-09  7.4791893955208121e-03  1.4321680101218093e-02  2.0560414256487386e-02  2.6225281533941019e-02  3.1342153775845115e-02  3.5932182706303349e-02  4.0011355786339138e-02  4.3590262646578261e-02  4.6674019520401448e-02  4.9262313792237625e-02  5.1349554485449936e-02  5.2925139074174732e-02  5.3973865476607485e-02  5.4476522742093456e-02  5.4410676872865882e-02  5.3751627552415276e-02  5.5708267230794611e-02  5.7052582025652894e-02  5.7789317448734008e-02  5.7919429913189047e-02  5.7438295894417749e-02  5.6334007908228907e-02  5.4585753214649493e-02  5.2162232058120012e-02  4.9020060865596134e-02  4.5102124715476352e-02  4.0335892608306938e-02  3.4631794173318034e-02  2.7881889772591074e-02  1.9959258604702254e-02  1.0718763163548395e-02  5.0197520029467895e-09  -1.3450384958414211e-09  7.2976252201214405e-03  1.3936820250936933e-02  1.9958722729008650e-02  2.5400408763185323e-02  3.0293687561558359e-02  3.4664304038545105e-02  3.8531488469597065e-02  4.1907754625014726e-02  4.4798853102954846e-02  4.7203816312068929e-02  4.9115071183766242e-02  5.0518636904011538e-02  5.1394462160488021e-02  5.1716982359394391e-02  5.1455980289482742e-02  5.0577799672305516e-02  5.2812422695669457e-02  5.4409578523354686e-02  5.5381769337554225e-02  5.5736458251925899e-02  5.5473984679664683e-02  5.4585753214649493e-02  5.3052623748561539e-02  5.0843402510174281e-02  4.7913349150844796e-02  4.4202664329457374e-02  3.9635000151501017e-02  3.4116142479223607e-02  2.7533148909501239e-02  1.9754373693175266e-02  1.0630918264565203e-02  -1.3450384964242168e-09  3.6040197898544473e-10  7.0490425928776326e-03  1.3419762476229587e-02  1.9163115107819945e-02  2.4324603055937730e-02  2.8942801116350093e-02  3.3048522644630034e-02  3.6664461149056644e-02  3.9805113208758305e-02  4.2476824204791520e-02  4.4677857692291698e-02  4.6398453148611234e-02  4.7620900317264958e-02  4.8319721586767998e-02  4.8462112818749806e-02  4.8008830285840159e-02  4.6915689383362706e-02  4.9384766374363370e-02  5.1193295382160144e-02  5.2363903717743604e-02  5.2912652866367073e-02  5.2846656352275152e-02  5.2162232058119984e-02  5.0843402510174253e-02  4.8860542122364452e-02  4.6169022256469704e-02  4.2707790089940988e-02  3.8397923754443543e-02  3.3141335176204025e-02  2.6819943830161657e-02  1.9295799852359914e-02  1.0412730794855201e-02  3.6040197918717216e-10  -9.6569420100358525e-11  6.7225554056223324e-03  1.2749542872120418e-02  1.