<?xml version="1.0"?>
<VTKFile type="UnstructuredGrid"  version="0.1"  >
<UnstructuredGrid>
<Piece  NumberOfPoints="189" NumberOfCells="192">
<Points>
<DataArray  type="Float64"  NumberOfComponents="3"  format="ascii">0 0 0  0.03125 0 0  0 0.03125 0  0.0625 0 0  0.09375 0 0  0.125 0 0  0.15625 0 0  0.1875 0 0  0.21875 0 0  0.25 0 0  0.28125 0 0  0.3125 0 0  0.34375 0 0  0.375 0 0  0.40625 0 0  0.4375 0 0  0.46875 0 0  0.5 0 0  0.53125 0 0  0.5 0.03125 0  0.5625 0 0  0.59375 0 0  0.625 0 0  0.65625 0 0  0.6875 0 0  0.71875 0 0  0.75 0 0  0.78125 0 0  0.8125 0 0  0.84375 0 0  0.875 0 0  0.90625 0 0  0.9375 0 0  0.96875 0 0  1 0 0  1 0.03125 0  0 0.0625 0  0.5 0.0625 0  1 0.0625 0  0 0.09375 0  0.5 0.09375 0  1 0.09375 0  0 0.125 0  0.5 0.125 0  1 0.125 0  0 0.15625 0  0.5 0.15625 0  1 0.15625 0  0 0.1875 0  0.5 0.1875 0  1 0.1875 0  0 0.21875 0  0.5 0.21875 0  1 0.21875 0  0 0.25 0  0.5 0.25 0  1 0.25 0  0 0.28125 0  0.5 0.28125 0  1 0.28125 0  0 0.3125 0  0.5 0.3125 0  1 0.3125 0  0 0.34375 0  0.5 0.34375 0  1 0.34375 0  0 0.375 0  0.5 0.375 0  1 0.375 0  0 0.40625 0  0.5 0.40625 0  1 0.40625 0  0 0.4375 0  0.5 0.4375 0  1 0.4375 0  0 0.46875 0  0.5 0.46875 0  1 0.46875 0  0 0.5 0  0.5 0.5 0  1 0.5 0  0.03125 0.5 0  0 0.53125 0  0.0625 0.5 0  0.09375 0.5 0  0.125 0.5 0  0.15625 0.5 0  0.1875 0.5 0  0.21875 0.5 0  0.25 0.5 0  0.28125 0.5 0  0.3125 0.5 0  0.34375 0.5 0  0.375 0.5 0  0.40625 0.5 0  0.4375 0.5 0  0.46875 0.5 0  0.53125 0.5 0  0.5 0.53125 0  0.5625 0.5 0  0.59375 0.5 0  0.625 0.5 0  0.65625 0.5 0  0.6875 0.5 0  0.71875 0.5 0  0.75 0.5 0  0.78125 0.5 0  0.8125 0.5 0  0.84375 0.5 0  0.875 0.5 0  0.90625 0.5 0  0.9375 0.5 0  0.96875 0.5 0  1 0.53125 0  0 0.5625 0  0.5 0.5625 0  1 0.5625 0  0 0.59375 0  0.5 0.59375 0  1 0.59375 0  0 0.625 0  0.5 0.625 0  1 0.625 0  0 0.65625 0  0.5 0.65625 0  1 0.65625 0  0 0.6875 0  0.5 0.6875 0  1 0.6875 0  0 0.71875 0  0.5 0.71875 0  1 0.71875 0  0 0.75 0  0.5 0.75 0  1 0.75 0  0 0.78125 0  0.5 0.78125 0  1 0.78125 0  0 0.8125 0  0.5 0.8125 0  1 0.8125 0  0 0.84375 0  0.5 0.84375 0  1 0.84375 0  0 0.875 0  0.5 0.875 0  1 0.875 0  0 0.90625 0  0.5 0.90625 0  1 0.90625 0  0 0.9375 0  0.5 0.9375 0  1 0.9375 0  0 0.96875 0  0.5 0.96875 0  1 0.96875 0  0 1 0  0.5 1 0  1 1 0  0.03125 1 0  0.0625 1 0  0.09375 1 0  0.125 1 0  0.15625 1 0  0.1875 1 0  0.21875 1 0  0.25 1 0  0.28125 1 0  0.3125 1 0  0.34375 1 0  0.375 1 0  0.40625 1 0  0.4375 1 0  0.46875 1 0  0.53125 1 0  0.5625 1 0  0.59375 1 0  0.625 1 0  0.65625 1 0  0.6875 1 0  0.71875 1 0  0.75 1 0  0.78125 1 0  0.8125 1 0  0.84375 1 0  0.875 1 0  0.90625 1 0  0.9375 1 0  0.96875 1 0  </DataArray>
</Points>
<Cells>
<DataArray  type="UInt32"  Name="connectivity"  format="ascii">0 1  0 2  1 3  3 4  4 5  5 6  6 7  7 8  8 9  9 10  10 11  11 12  12 13  13 14  14 15  15 16  16 17  17 18  17 19  18 20  20 21  21 22  22 23  23 24  24 25  25 26  26 27  27 28  28 29  29 30  30 31  31 32  32 33  33 34  34 35  2 36  19 37  35 38  36 39  37 40  38 41  39 42  40 43  41 44  42 45  43 46  44 47  45 48  46 49  47 50  48 51  49 52  50 53  51 54  52 55  53 56  54 57  55 58  56 59  57 60  58 61  59 62  60 63  61 64  62 65  63 66  64 67  65 68  66 69  67 70  68 71  69 72  70 73  71 74  72 75  73 76  74 77  75 78  76 79  77 80  78 81  78 82  81 83  83 84  84 85  85 86  86 87  87 88  88 89  89 90  90 91  91 92  92 93  93 94  94 95  95 96  79 96  79 97  79 98  97 99  99 100  100 101  101 102  102 103  103 104  104 105  105 106  106 107  107 108  108 109  109 110  110 111  111 112  80 112  80 113  82 114  98 115  113 116  114 117  115 118  116 119  117 120  118 121  119 122  120 123  121 124  122 125  123 126  124 127  125 128  126 129  127 130  128 131  129 132  130 133  131 134  132 135  133 136  134 137  135 138  136 139  137 140  138 141  139 142  140 143  141 144  142 145  143 146  144 147  145 148  146 149  147 150  148 151  149 152  150 153  151 154  152 155  153 156  154 157  155 158  156 159  159 160  160 161  161 162  162 163  163 164  164 165  165 166  166 167  167 168  168 169  169 170  170 171  171 172  172 173  157 173  157 174  174 175  175 176  176 177  177 178  178 179  179 180  180 181  181 182  182 183  183 184  184 185  185 186  186 187  187 188  158 188  </DataArray>
<DataArray  type="UInt32"  Name="offsets"  format="ascii">2 4 6 8 10 12 14 16 18 20 22 24 26 28 30 32 34 36 38 40 42 44 46 48 50 52 54 56 58 60 62 64 66 68 70 72 74 76 78 80 82 84 86 88 90 92 94 96 98 100 102 104 106 108 110 112 114 116 118 120 122 124 126 128 130 132 134 136 138 140 142 144 146 148 150 152 154 156 158 160 162 164 166 168 170 172 174 176 178 180 182 184 186 188 190 192 194 196 198 200 202 204 206 208 210 212 214 216 218 220 222 224 226 228 230 232 234 236 238 240 242 244 246 248 250 252 254 256 258 260 262 264 266 268 270 272 274 276 278 280 282 284 286 288 290 292 294 296 298 300 302 304 306 308 310 312 314 316 318 320 322 324 326 328 330 332 334 336 338 340 342 344 346 348 350 352 354 356 358 360 362 364 366 368 370 372 374 376 378 380 382 384 </DataArray>
<DataArray  type="UInt8"  Name="types"  format="ascii">3 3 3 3 3 3 3 3 3 3 3 3 3 3 3 3 3 3 3 3 3 3 3 3 3 3 3 3 3 3 3 3 3 3 3 3 3 3 3 3 3 3 3 3 3 3 3 3 3 3 3 3 3 3 3 3 3 3 3 3 3 3 3 3 3 3 3 3 3 3 3 3 3 3 3 3 3 3 3 3 3 3 3 3 3 3 3 3 3 3 3 3 3 3 3 3 3 3 3 3 3 3 3 3 3 3 3 3 3 3 3 3 3 3 3 3 3 3 3 3 3 3 3 3 3 3 3 3 3 3 3 3 3 3 3 3 3 3 3 3 3 3 3 3 3 3 3 3 3 3 3 3 3 3 3 3 3 3 3 3 3 3 3 3 3 3 3 3 3 3 3 3 3 3 3 3 3 3 3 3 3 3 3 3 3 3 3 3 3 3 3 3 </DataArray>
</Cells>
<PointData  Scalars="f_83"> 
<DataArray  type="Float64"  Name="f_83"  format="ascii">-1.2870022935444163e-02  2.6467091186833467e-02  2.6467091186833488e-02  4.3498580742146409e-02  6.5293761181976689e-02  8.4611211676879003e-02  1.0340316006396943e-01  1.2115808426532029e-01  1.3802701348708341e-01  1.5397749941443462e-01  1.6905240103460656e-01  1.8318636694990229e-01  1.9667215408037864e-01  2.0853001752266787e-01  2.2240472421094221e-01  2.2527202665314661e-01  2.6442434851141505e-01  1.6995092625212507e-01  2.7646253621251599e-01  -6.3755387475136233e-02  2.4921709628781777e-01  2.5799193515747304e-01  2.5534805226711427e-01  2.5414632516073543e-01  2.5055343751096820e-01  2.4532751450904422e-01  2.3790506929217378e-01  2.2803027189168071e-01  2.1520803784607306e-01  1.9905994722613643e-01  1.7821471429323080e-01  1.5396431513385486e-01  1.1594113168653788e-01  9.4017997707320194e-02  -3.9194009436000370e-02  9.4008040025648290e-02  4.3498580742146402e-02  -1.2534707068803816e-02  1.1891064991322549e-01  6.5293761181976648e-02  -4.2021418629096710e-02  1.6097308947594105e-01  8.4611211676879100e-02  -4.7440995793721699e-02  1.9049766259711964e-01  1.0340316006396948e-01  -5.8312183577500856e-02  2.1746250234181036e-01  1.2115808426532017e-01  -6.6085403404944301e-02  2.4033218928142006e-01  1.3802701348708360e-01  -7.3036237151380426e-02  2.6018386667986571e-01  1.5397749941443412e-01  -7.8419508531067397e-02  2.7708825501394202e-01  1.6905240103460764e-01  -8.2370901851892900e-02  2.9120587810179754e-01  1.8318636694990001e-01  -8.4803232531782458e-02  3.0235229485217874e-01  1.9667215408037983e-01  -8.5711794960619272e-02  3.1072477057035641e-01  2.0853001752266664e-01  -8.5068319600928380e-02  3.1438882525479767e-01  2.2240472421094246e-01  -8.2863856580768738e-02  3.1812086629161990e-01  2.2527202665315188e-01  -7.8931342921978204e-02  3.0046991711036325e-01  2.6442434851138968e-01  -7.3375483066536559e-02  3.3268308492805904e-01  1.6995092625219860e-01  -6.4479290364714628e-02  1.4087298867605003e-01  -6.3755387475063333e-02  2.7646253621253264e-01  -1.2534707068832644e-02  -4.2021418629115508e-02  -4.7440995793712200e-02  -5.8312183577507920e-02  -6.6085403404946993e-02  -7.3036237151383659e-02  -7.8419508531070187e-02  -8.2370901851909747e-02  -8.4803232531783582e-02  -8.5711794960614582e-02  -8.5068319600933792e-02  -8.2863856580774622e-02  -7.8931342921957151e-02  -7.3375483066555253e-02  -4.9311962895020288e-02  -4.9311962895036178e-02  -3.1058198038297732e-02  -1.1711148473465606e-02  8.5424843413489469e-03  2.9208018139673754e-02  4.9899527646751762e-02  7.0145070856600822e-02  8.9399781646030463e-02  1.0692940103558993e-01  1.2198306776635012e-01  1.3292763213024214e-01  1.3984627740747740e-01  1.3482578990778513e-01  1.3400693564942220e-01  6.4996237220261849e-02  3.4472691896129776e-01  2.4921709628779992e-01  -3.1058198038306770e-02  3.2441218324454474e-01  2.5799193515748314e-01  -1.1711148473473699e-02  3.5369994749514277e-01  2.5534805226711071e-01  8.5424843413435293e-03  3.6119252731252943e-01  2.5414632516073637e-01  2.9208018139667891e-02  3.6817878553826638e-01  2.5055343751096903e-01  4.9899527646753920e-02  3.6969356696846950e-01  2.4532751450904347e-01  7.0145070856597477e-02  3.6744958100559166e-01  2.3790506929217684e-01  8.9399781646030116e-02  3.6097982879395007e-01  2.2803027189167710e-01  1.0692940103560272e-01  3.5014398886990172e-01  2.1520803784607748e-01  1.2198306776634885e-01  3.3434307310226730e-01  1.9905994722613410e-01  1.3292763213025191e-01  3.1304477694547583e-01  1.7821471429323377e-01  1.3984627740747646e-01  2.8414207556868154e-01  1.5396431513385392e-01  1.3482578990778901e-01  2.4924224002567144e-01  1.1594113168653861e-01  1.3400693564940747e-01  1.9259965552545247e-01  9.4017997707319251e-02  6.4996237220288036e-02  1.5666775773609556e-01  -3.9194009435999211e-02  1.4087298867599546e-01  -4.7462069629025917e-02  9.4008040025647527e-02  1.1891064991322596e-01  1.6097308947594099e-01  1.9049766259711992e-01  2.1746250234181097e-01  2.4033218928142022e-01  2.6018386667986615e-01  2.7708825501394302e-01  2.9120587810179616e-01  3.0235229485218168e-01  3.1072477057035641e-01  3.1438882525479522e-01  3.1812086629163178e-01  3.0046991711032045e-01  3.3268308492816101e-01  3.4472691896132102e-01  3.2441218324453480e-01  3.5369994749514561e-01  3.6119252731252854e-01  3.6817878553826611e-01  3.6969356696847039e-01  3.6744958100559100e-01  3.6097982879395074e-01  3.5014398886989950e-01  3.3434307310227007e-01  3.1304477694547422e-01  2.8414207556868198e-01  2.4924224002567086e-01  1.9259965552545003e-01  1.5666775773609640e-01  </DataArray> 
</PointData> 
</Piece>
</UnstructuredGrid>
</VTKFile>